# LAMMPS data file written by changergo
9604 atoms
2 atom types
2.9897751195136983e+00 3.1528231205386284e+01 xlo xhi
2.9897751195136983e+00 3.1528231205386284e+01 ylo yhi
2.9897751195136983e+00 3.1528231205386284e+01 zlo zhi

Atoms  # atomic

4544 2 20.8806 6.65734 4.51843
3195 2 20.8778 4.49806 8.24687
6158 2 27.6342 10.1681 9.00344
2762 2 4.25472 5.49203 10.2531
8285 1 10.3434 8.69886 5.20194
3417 2 28.6197 4.73648 6.65941
6955 2 11.9693 6.47134 6.05649
8832 1 20.6483 5.68883 3.20038
5510 2 15.5136 10.4947 10.201
4125 2 18.8876 7.06869 5.39396
744 2 27.3939 11.2241 3.29298
2254 2 8.06592 6.80808 5.46325
7593 2 30.6261 9.06032 6.34685
3954 2 11.5945 5.55774 7.56332
2221 2 27.1161 6.51327 7.3924
5930 2 25.6697 3.8492 8.87729
1363 2 23.8361 7.42052 6.0374
2128 2 18.4456 10.8202 3.43521
217 2 27.596 3.17496 3.27704
4324 2 25.4604 4.96219 8.609
1706 2 8.68623 8.74033 6.33045
7224 2 19.6083 4.75411 5.27475
7990 1 28.5233 3.21208 9.88925
2703 2 31.3271 8.70355 3.768
7288 2 15.4915 11.17 9.92594
6025 2 12.2697 7.34241 3.20122
6085 2 4.96311 5.32525 7.87146
1953 2 12.619 8.8173 7.02233
3303 2 9.62209 5.84762 3.97007
2967 2 15.2654 5.19393 4.71038
6889 2 11.7459 3.36502 8.8503
8516 1 20.8161 3.01954 8.21549
6859 2 19.0588 8.15192 3.77991
6811 2 10.699 6.12524 9.60734
3277 2 16.7337 8.00244 5.72107
4250 2 6.08349 5.2094 4.36131
443 2 12.0417 4.74196 5.98471
4677 2 29.7029 9.5567 4.93904
6461 2 4.84139 3.80373 6.71657
7896 1 15.8418 6.47899 6.86903
7724 1 8.69309 5.15182 8.00458
3870 2 13.7096 8.59553 5.73202
3785 2 5.74992 7.3189 4.91121
9116 1 30.1277 9.76177 3.68457
2354 2 9.34365 4.16009 7.2157
3329 2 17.4284 4.39663 9.26219
4161 2 8.59593 11.5246 3.4394
8417 1 31.1368 10.3923 3.88962
65 2 19.5757 7.64616 5.97575
6287 2 16.4226 3.42871 6.1359
1780 2 3.27439 6.5544 4.03678
1599 2 30.2932 7.41753 3.31828
5277 2 8.27961 5.66688 9.50423
4611 2 7.3639 5.59012 5.47224
1978 2 30.1973 5.42618 5.69316
9528 1 25.1461 10.6955 3.32365
6472 2 11.2375 6.85005 4.36431
710 2 11.84 8.85186 4.50845
8508 1 6.98687 7.36418 3.81278
5480 2 16.6869 4.49874 12.0042
971 2 26.3361 4.09953 8.19258
3916 2 20.4581 3.92033 11.6661
9244 1 27.2175 9.60256 11.6298
9434 1 13.5457 5.54409 11.2203
9236 1 24.2476 11.2927 8.85496
8729 1 26.8765 5.91384 3.88467
3925 2 10.0506 9.57057 7.03812
2814 2 18.4128 6.24933 7.79549
7059 2 9.86492 9.65083 4.07255
4313 2 29.6421 11.6722 5.54693
8705 1 15.6157 12.1199 6.5008
5651 2 6.88236 8.63832 6.25158
202 2 9.5912 3.73314 9.06949
1131 2 7.92617 4.2396 3.94585
1817 2 15.7064 3.91613 5.24632
8669 1 22.8083 7.28261 4.81198
7068 2 14.5685 3.37382 5.32112
5267 2 18.2698 6.51172 6.08289
5866 2 26.5276 10.2377 8.15281
4929 2 19.753 3.59058 5.44084
965 2 27.1853 3.7584 8.77442
7494 2 27.5871 12.1646 6.06661
3327 2 28.2162 10.5496 4.79676
7151 2 13.203 4.98946 3.57971
1030 2 17.8939 8.16383 9.05665
4558 2 21.3812 9.55146 5.41852
6814 2 10.3653 4.85683 6.15916
2201 2 28.0212 11.1493 4.241
7126 2 17.2981 4.26624 4.81834
1564 2 5.88476 3.54251 9.91001
3050 2 11.2283 7.73277 4.37627
4406 2 13.5751 3.2026 6.79383
4613 2 15.7177 5.90836 5.04614
2382 2 20.318 8.0976 11.0974
99 2 18.3473 7.38004 3.20439
6521 2 5.2021 7.83628 10.2118
2982 2 14.349 11.9592 3.94305
7394 2 21.9517 5.30413 5.29309
6623 2 15.2913 6.79369 7.60175
6751 2 9.49643 6.24314 5.32619
3908 2 21.1409 4.00513 5.70775
8382 1 16.689 9.90399 3.71443
6281 2 28.0474 3.68954 3.45867
2477 2 9.44383 3.50929 3.72737
2911 2 31.1759 4.64992 5.9795
4744 2 17.7332 11.2343 11.7564
1322 2 11.5797 4.28865 10.6843
8940 1 12.7856 9.79019 3.74471
5134 2 18.1827 4.9626 6.61017
5196 2 11.5494 6.47822 8.67359
1349 2 11.137 2.9929 5.07433
404 2 12.6299 4.41618 6.54098
3545 2 30.0467 7.73345 5.23155
4370 2 26.8104 7.26801 5.87366
546 2 25.3058 3.05269 7.0576
6954 2 8.49068 4.49963 6.12231
3576 2 6.57841 3.01359 4.41978
6990 2 4.54129 3.13178 8.75395
1249 2 8.43027 7.31571 6.13793
4433 2 4.55403 3.8789 5.08505
1870 2 23.3011 3.00897 11.186
8785 1 13.0346 5.92661 6.56856
3892 2 17.5035 9.21511 4.8307
1406 2 4.76096 10.9426 3.65548
8414 1 27.3061 9.12153 3.30825
4949 2 28.4362 6.77323 9.16615
2643 2 10.2231 7.12654 4.29485
5676 2 6.56509 5.97323 4.23613
7578 2 29.1431 8.99276 3.36684
9313 1 25.1067 4.48195 5.72549
7233 2 28.2907 8.28315 4.58793
5108 2 31.2 6.62778 9.03266
892 2 23.4244 7.31338 7.39196
567 2 28.836 9.66702 5.82431
4476 2 11.2035 8.84225 3.34387
8945 1 24.7697 4.89923 7.02891
9474 1 26.4262 6.4323 4.98454
6605 2 4.96435 3.27741 10.4272
6409 2 3.44499 9.79187 12.199
5036 2 18.8758 4.29836 7.96229
883 2 17.934 3.53736 5.47989
207 2 3.22628 11.471 5.43052
6421 2 12.7438 4.66884 7.43735
5755 2 26.1723 7.38948 6.51421
3352 2 30.894 5.76389 5.61381
6278 2 7.79593 6.32012 3.11177
7547 2 5.93099 7.95996 8.79109
637 2 20.7358 5.10552 9.49362
596 2 29.8919 4.58169 11.4635
5667 2 17.4901 5.60462 12.0014
996 2 9.96082 3.56812 7.00919
1657 2 12.4893 9.61623 11.7818
1351 2 18.4389 7.93142 10.0084
8431 1 19.5844 5.148 3.91812
3569 2 18.2908 6.75426 6.9065
9319 1 24.2005 3.98388 12.1072
4648 2 6.08949 6.49929 8.29119
1714 2 8.79043 5.90905 5.21204
2062 2 16.3038 8.27625 7.83452
8472 1 13.0095 4.35439 9.13563
2065 2 3.11503 8.7166 4.29163
4743 2 20.2877 4.17298 6.97679
3636 2 15.8032 3.8985 8.33869
9067 1 11.0551 9.52233 8.21036
8292 1 25.1055 4.5842 3.72377
9053 1 15.869 8.92858 4.8977
4270 2 3.43405 4.05159 9.3741
3794 2 19.0977 3.77234 5.41149
4126 2 23.0176 11.3837 3.67475
8693 1 26.8648 10.6953 10.4606
2322 2 14.8741 8.02996 6.52869
9567 1 28.6981 3.2525 6.0809
6837 2 14.3257 4.28325 12.2068
1995 2 9.96786 8.95015 9.06129
1631 2 8.59924 3.57006 10.9725
9221 1 18.9075 3.2652 6.97794
2468 2 7.47316 4.28336 5.32267
5597 2 14.5473 4.03326 10.8389
8195 1 13.8067 8.34078 4.19681
3469 2 7.87686 3.26107 8.25923
8615 1 6.22702 5.62736 7.43221
8065 1 14.1137 9.71308 3.73999
1470 2 5.61197 6.90131 5.68999
7881 1 20.1653 3.8119 10.4035
8550 1 23.9539 6.31562 4.00904
1828 2 21.2151 6.95041 6.69443
2276 2 24.1619 8.79497 3.91271
6578 2 29.5878 8.91729 7.13275
5595 2 22.0661 11.1146 5.14677
8840 1 29.3724 5.22725 4.10476
6133 2 24.0584 11.0514 7.24627
7993 1 21.9614 3.16334 12.0379
2001 2 8.40721 6.31345 6.79299
273 2 18.539 7.20404 10.506
1446 2 22.6261 8.87626 5.26899
8683 1 12.4897 5.65328 9.54521
5369 2 12.1327 3.20088 6.96869
2631 2 8.63866 3.23259 8.82635
5976 2 7.71412 3.94188 12.0075
6320 2 21.3086 4.45961 8.83606
7274 2 15.8124 3.88188 9.25969
7714 1 24.7036 3.37404 4.72837
3265 2 28.1756 5.52461 10.3814
7218 2 14.3368 11.5159 3.54259
7512 2 30.9306 7.24463 7.00169
5591 2 28.6711 5.2808 8.72044
7473 2 4.33558 9.3565 7.88619
4864 2 25.0134 7.69013 7.56788
2088 2 11.8184 3.82818 9.34935
4836 2 21.6668 5.69001 5.85423
5498 2 26.4721 8.49764 6.29477
7027 2 22.8145 10.2 9.37737
655 2 24.1819 3.68731 9.3732
1497 2 11.1568 4.85493 7.53127
295 2 30.4062 3.19081 9.56559
8623 1 15.1799 6.39703 9.5346
3220 2 7.23205 8.99097 9.47082
9493 1 19.403 9.53709 6.4262
1719 2 16.0513 4.3095 4.11548
4299 2 4.88257 5.43352 4.62314
2805 2 20.5861 3.30367 12.173
6108 2 25.2862 4.66538 9.97153
7760 1 30.1134 11.3028 3.67007
8722 1 27.8878 3.75953 5.08297
7171 2 29.8842 10.3127 6.78603
1038 2 23.8838 4.04551 7.81486
1244 2 28.4157 6.0815 3.23077
1070 2 3.56517 6.42315 7.57068
2868 2 10.0572 7.52945 10.1173
5798 2 7.63771 4.82695 7.23909
8147 1 7.17352 3.19285 10.1327
2337 2 14.8077 3.78704 12.0919
2904 2 30.4181 3.69751 8.71054
2819 2 14.1661 8.87152 10.3289
5641 2 13.352 9.61401 7.9783
4004 2 25.7679 6.93713 9.7079
3838 2 31.3967 4.26049 3.29399
5836 2 6.57895 10.6577 8.80372
6332 2 3.44269 11.6285 9.06976
6081 2 14.9777 7.998 5.65473
1056 2 7.40475 8.3566 9.14396
2286 2 24.468 5.72036 5.65689
7333 2 9.90637 4.79994 4.33271
5216 2 14.6494 5.20343 6.62143
9018 1 7.79465 8.8432 4.48212
3386 2 8.00112 5.24163 2.99247
9223 1 14.9096 7.64698 4.30239
2807 2 25.1044 9.46402 7.34953
6574 2 12.7297 6.80802 8.30177
1032 2 19.0684 6.41794 8.48729
1445 2 26.0683 3.61155 10.5121
2265 2 20.2312 4.49216 9.33753
4480 2 31.3329 10.6982 5.87273
8655 1 13.5853 5.49437 8.15556
5795 2 20.0676 12.0678 9.08108
1920 2 10.2185 3.63175 11.0835
9316 1 11.9442 11.6664 8.16657
7876 1 15.8648 11.3376 4.83582
3086 2 27.2027 5.98756 9.49141
113 2 21.2893 8.97678 12.3203
8227 1 16.7119 7.96739 3.89689
6053 2 11.1888 4.80744 4.47043
6391 2 27.4515 3.9691 6.96774
6944 2 27.9432 5.33292 8.41025
3010 2 19.8966 10.68 9.51213
8660 1 29.003 3.94879 4.0811
2895 2 14.1825 8.81532 8.66483
8744 1 14.7396 10.0891 9.26112
4249 2 3.95517 3.36097 4.33712
6744 2 10.8251 3.03112 6.10602
1124 2 20.7057 10.6784 6.34671
2942 2 11.5095 5.23355 5.22938
7977 1 5.71953 10.2624 4.44544
6690 2 8.69907 7.28334 4.35854
2024 2 3.27776 5.6556 6.36365
4181 2 14.0598 6.82578 8.20428
8276 1 23.4353 3.1816 5.00478
9385 1 15.0259 10.5327 5.55624
6931 2 15.5662 3.16589 7.25022
8582 1 27.8206 5.58355 5.56771
5010 2 25.7064 5.55802 6.89716
4096 2 3.29687 5.15452 11.1571
6516 2 27.2322 4.07049 6.27297
7629 2 28.5503 7.63126 5.76533
155 2 20.4508 5.99647 7.62274
4065 2 4.70803 8.47305 5.78052
1518 2 3.73684 6.41496 5.68075
6804 2 5.53438 5.25729 5.4122
8494 1 19.6781 7.29222 8.47437
8349 1 30.22 4.6575 7.35191
1921 2 24.8682 6.012 5.24096
6363 2 10.6111 5.90293 6.9235
8203 1 16.6085 5.51036 8.16369
8056 1 12.5874 11.0201 3.28059
5897 2 24.928 8.81384 5.44563
818 2 16.396 5.50027 4.83911
3497 2 9.07869 6.74384 3.47688
6410 2 17.6028 5.31236 4.93483
2367 2 4.10718 4.58913 5.71485
7446 2 18.1488 4.46438 3.10544
3334 2 11.0398 12.0212 3.46544
2285 2 10.0875 4.52588 9.99894
1429 2 22.7465 3.7543 7.67521
3404 2 18.3075 3.44179 9.44659
6055 2 14.2636 5.1228 5.6779
4644 2 11.4924 10.1434 3.42439
5394 2 4.29541 4.89668 6.38236
8165 1 15.4966 9.60492 6.56138
2238 2 27.4662 9.26399 9.93654
817 2 28.5628 6.6216 9.88381
1639 2 21.2399 11.0809 3.8014
1401 2 29.0564 4.12245 10.3559
1807 2 29.6864 4.58447 9.33722
246 2 13.5406 4.87122 7.0858
4231 2 20.8612 3.79983 6.93432
8034 1 29.2845 6.28616 5.38039
2651 2 7.4229 4.11038 7.75768
3193 2 31.2726 6.4049 4.69118
7901 1 17.367 8.01606 10.4855
3262 2 8.5449 4.53041 12.178
2230 2 25.7587 8.30259 7.50131
2750 2 28.9131 11.4666 5.27211
2260 2 28.2389 10.8214 7.90908
1297 2 23.2861 9.44898 6.75181
5988 2 18.0564 4.35503 6.76332
5858 2 4.06398 6.04423 3.00534
3136 2 20.9525 4.15988 4.76061
1918 2 9.59727 4.41807 3.20887
6092 2 8.77036 9.63485 5.85774
9049 1 19.3179 6.42866 10.2364
9509 1 12.6764 7.4775 4.82544
7246 2 11.4194 4.14384 3.89405
9131 1 23.5233 3.57675 6.56615
5454 2 16.99 4.1081 7.70944
1732 2 29.4762 5.37506 11.7617
4785 2 4.91065 5.94944 9.73683
5118 2 8.23793 5.82629 3.93366
4438 2 18.1753 4.51378 7.81052
5739 2 31.083 12.0865 5.00486
935 2 11.7394 6.17399 4.39036
839 2 27.1815 10.9723 9.09505
2085 2 10.3223 3.75439 5.2729
6504 2 12.3647 6.91884 3.77877
1955 2 23.7862 10.4436 4.67497
5903 2 27.4456 11.3116 5.7876
5999 2 29.6379 8.69399 6.45968
7399 2 4.82575 4.50173 8.52062
788 2 24.528 8.39311 6.53458
3188 2 21.3302 8.30605 3.95437
2330 2 29.9644 8.87383 4.77429
4958 2 24.5247 10.6853 10.1921
6739 2 3.72177 3.39894 9.52808
3383 2 7.65442 4.63898 9.80176
5305 2 8.47497 4.64338 5.26276
4671 2 7.90065 9.73091 9.69239
6246 2 30.8982 7.29007 4.81046
884 2 25.7284 8.65153 5.35248
3967 2 7.06561 5.24792 6.36989
7110 2 19.4723 10.8821 10.2214
282 2 30.5998 5.70553 4.39797
7785 1 19.6372 3.37808 4.02465
6096 2 25.2525 6.40154 6.59619
2706 2 9.79044 5.11306 12.2073
7700 1 18.0543 12.2071 3.52949
1939 2 12.8156 3.4051 3.43958
7278 2 7.16357 11.8071 3.57202
8234 1 14.7758 4.52717 8.38372
667 2 15.0342 4.29574 6.81623
2803 2 17.4928 8.52568 7.13685
7655 2 6.80275 11.3037 3.2867
579 2 11.8023 7.72651 6.3723
3684 2 16.439 3.47479 7.77123
2632 2 30.6029 9.92274 8.31812
3904 2 12.9182 8.60029 11.9596
6700 2 27.8766 4.11004 11.9815
5388 2 23.5975 4.12637 9.79324
9030 1 17.4361 11.7234 6.92495
5396 2 26.9063 7.47654 10.4728
6923 2 6.67147 9.95989 6.16419
2993 2 29.4493 9.84344 8.40275
3681 2 14.1799 12.3385 9.23193
2543 2 14.5179 8.0302 10.4472
9127 1 26.3186 3.48393 4.83626
260 2 17.3475 3.4552 5.98712
2682 2 14.9537 5.54126 6.08115
1743 2 31.4204 8.13867 8.38471
69 2 4.88529 4.28924 12.452
3491 2 6.74852 4.81367 9.47053
905 2 29.9681 10.38 11.0167
8140 1 15.409 10.4448 3.91058
3095 2 17.1634 6.11221 4.97097
8970 1 16.2456 4.88896 6.07567
3205 2 16.4579 9.25922 8.61953
8813 1 22.8037 9.61323 10.7213
6305 2 8.92657 7.96954 4.40191
8927 1 13.8953 10.575 4.8137
4286 2 7.35178 6.97282 11.7015
6241 2 9.6027 3.94438 5.23461
4626 2 14.8488 12.3793 11.0229
4840 2 22.398 3.751 4.36092
8010 1 19.6923 11.795 3.88606
9448 1 3.66514 10.5196 4.32832
2882 2 6.83028 6.10139 6.23505
2305 2 28.6925 6.60359 3.62912
4789 2 22.9965 12.4361 3.80043
7932 1 25.0864 7.12151 4.48143
5889 2 3.46766 4.23604 11.4365
2031 2 10.2363 7.51632 6.17565
4441 2 22.7136 9.45896 3.4432
868 2 25.9518 11.3026 6.02051
1448 2 22.0549 11.3687 6.85652
2739 2 9.09893 8.84872 9.39072
9267 1 21.4358 6.75464 11.0489
9286 1 23.3142 7.35063 11.7809
1061 2 4.3371 9.35711 6.32284
5823 2 12.038 8.13454 8.44109
505 2 29.7389 9.15345 10.1846
7393 2 16.7975 10.4902 10.6915
3433 2 4.10255 4.19374 10.1027
4464 2 19.3587 4.75023 12.0557
4372 2 29.5243 5.86317 10.4585
228 2 7.14984 3.18992 3.50979
8025 1 22.1878 4.23436 10.8153
4955 2 17.8462 9.14131 4.23191
2958 2 27.864 5.61776 11.6033
6583 2 15.8418 8.98742 10.1488
8168 1 14.2957 7.07182 6.55681
6298 2 18.3612 6.35243 3.48817
6919 2 27.144 5.59915 11.887
3289 2 23.3123 4.41819 5.25798
8954 1 27.6188 3.4313 10.7086
5879 2 24.6402 9.52753 4.45938
6115 2 26.2321 5.58984 8.31729
8184 1 4.50182 9.49735 10.9921
9314 1 4.98901 3.08748 12.3675
3362 2 27.5334 6.71789 9.88265
270 2 8.96171 12.2581 10.6804
8651 1 4.85753 10.2993 8.9391
3135 2 3.63562 7.41979 7.02522
7193 2 21.9236 8.23045 3.00399
3166 2 11.888 5.61092 12.044
4477 2 19.9425 6.81808 4.48462
5911 2 29.8972 3.7306 8.09336
123 2 12.4335 7.21924 7.22707
7907 1 27.8402 8.05344 11.3837
6060 2 9.03411 11.591 5.42099
1428 2 9.16376 12.0237 7.38972
390 2 28.653 10.0563 8.34745
6508 2 30.2728 5.90356 10.3187
3769 2 29.4224 10.8053 6.34615
7763 1 23.4733 8.59153 11.4084
5411 2 9.25627 4.73522 10.5394
9320 1 8.50373 7.22448 10.0776
3657 2 18.2328 11.1367 8.96224
4261 2 22.4407 5.64979 4.02593
2427 2 11.1469 12.374 7.36656
3544 2 6.22534 3.16315 4.89133
739 2 14.7553 10.8109 11.5741
3842 2 26.857 8.97314 5.67868
361 2 7.79042 10.2064 10.466
4192 2 8.509 4.22778 9.44159
9088 1 15.3166 8.94269 3.49673
590 2 23.7266 7.89544 5.51798
9174 1 24.7695 6.49263 8.45799
6355 2 18.2531 6.28558 4.37762
1592 2 6.49569 8.40576 5.31865
2873 2 26.0196 8.77689 4.12731
5521 2 6.33469 4.48358 8.64522
2256 2 4.5524 7.67854 5.42225
7254 2 9.53025 4.14232 12.3057
4638 2 8.34391 3.79032 6.82662
2197 2 23.6291 8.43491 7.49944
5714 2 6.04086 8.96051 4.59573
7031 2 26.8534 5.70068 6.65492
4188 2 13.4506 3.61006 8.1599
5029 2 31.4187 11.778 4.06981
7008 2 31.0863 5.15246 10.2034
4405 2 11.7014 8.48662 8.84405
3820 2 13.6323 4.40955 5.66943
3790 2 18.9465 5.09762 10.2419
102 2 30.1908 3.89583 10.8533
5252 2 10.2762 5.7624 12.1975
584 2 30.1813 7.73016 7.76978
3258 2 12.1857 11.0307 9.49137
2397 2 15.227 10.2349 8.11251
345 2 7.13994 7.5131 6.99864
7935 1 22.6731 5.71218 10.9314
2667 2 9.3549 11.468 9.9749
5304 2 6.77715 6.51985 4.78984
7074 2 12.9992 2.9975 9.96615
704 2 3.73161 6.88897 6.38337
3700 2 25.439 11.1466 6.57799
7622 2 8.76095 8.72706 10.9234
9143 1 19.6775 10.5648 8.40746
5459 2 10.0139 10.6289 3.70975
6215 2 30.9771 3.93171 6.0355
7367 2 27.6765 8.4093 9.12933
9401 1 25.6227 3.20078 2.99674
8008 1 23.4953 7.88288 3.82455
986 2 10.6181 3.97998 9.53014
3849 2 3.89125 4.79794 4.35585
3255 2 27.674 7.6681 7.53046
3845 2 11.4246 8.41908 5.63627
9179 1 27.4039 12.4496 11.8382
6545 2 10.2785 11.3536 8.50732
5907 2 18.7628 4.77315 9.51771
5334 2 19.8914 6.61497 3.60378
1484 2 22.9261 10.959 10.0322
7083 2 8.52757 7.85768 8.60736
1685 2 19.815 5.60904 7.89137
562 2 18.4493 8.78999 11.3145
7591 2 6.14219 9.45072 7.06652
2133 2 9.5289 9.04998 7.83096
7137 2 6.79476 4.60739 3.34773
3548 2 17.7658 6.45142 8.91267
8564 1 24.8019 11.5563 4.17248
5825 2 28.8369 4.05473 7.04402
3456 2 22.2194 3.37233 7.93094
3907 2 25.8524 12.1456 12.4135
9132 1 30.0686 7.68497 10.8378
8879 1 23.7477 9.86892 8.07541
7085 2 23.2825 8.52396 8.61261
7311 2 6.78931 5.84071 9.74477
5156 2 8.76741 6.74833 9.0313
7133 2 20.6676 4.62419 4.28809
3181 2 25.3897 8.043 10.5292
4365 2 11.6195 6.73165 10.8529
8250 1 18.5546 11.1457 5.08356
7750 1 20.8887 8.79417 7.35302
7606 2 11.3059 3.66242 7.27629
6251 2 31.1004 8.13339 5.85372
5940 2 12.4985 12.3193 11.0008
6899 2 31.4275 10.1498 8.65402
2888 2 5.68851 7.78798 11.8015
7534 2 17.8405 6.5472 11.1796
2817 2 9.9435 6.49404 7.81794
3943 2 11.871 10.6422 12.0076
6956 2 9.97914 7.46811 5.41691
7784 1 17.0624 11.3003 3.83965
5805 2 19.9223 5.46688 9.17941
1733 2 4.12035 10.7765 6.63026
4738 2 12.2923 8.65356 3.08151
8016 1 3.94281 7.08643 9.65694
843 2 30.8213 6.32141 12.0827
8650 1 16.8296 10.065 5.18307
6354 2 16.1111 7.73163 5.72446
330 2 12.0744 5.60381 3.21573
8593 1 17.3545 11.7132 5.30916
6242 2 12.8328 8.23344 10.0375
969 2 11.9153 11.7815 10.4681
5483 2 31.2325 12.2529 10.9811
3485 2 8.22948 10.4095 6.94045
8921 1 30.379 3.80528 4.78806
3518 2 4.06218 12.4381 11.5101
4189 2 6.18611 7.32413 6.35144
5765 2 23.4571 3.42816 10.6796
7164 2 28.4296 7.58487 8.39873
6360 2 14.8215 11.6342 11.0003
278 2 10.9612 10.2329 6.16467
4515 2 12.1545 5.95162 8.09227
3792 2 8.71606 8.80642 8.2395
1001 2 9.10157 5.99138 9.89871
2213 2 28.8942 5.38259 12.4415
4877 2 18.4643 4.51582 3.70213
1375 2 7.12891 8.68206 11.1838
5856 2 9.91969 5.68023 5.0666
2521 2 22.776 5.19495 7.99973
4820 2 19.1355 9.81846 4.10271
621 2 18.3088 8.6164 12.0065
9540 1 23.041 6.08955 6.44307
643 2 4.80025 11.9349 9.41696
1431 2 27.3866 9.80322 7.25723
2757 2 10.2777 9.34162 10.4847
6901 2 31.3311 11.1438 6.71842
3763 2 26.1496 8.9429 7.43015
7390 2 29.3764 8.84954 12.0077
51 2 4.60384 8.07431 7.70027
454 2 8.31585 8.29966 6.90257
1329 2 7.78631 4.93764 11.1571
1835 2 22.4774 4.49965 4.62358
3432 2 14.2792 4.46853 3.67086
7001 2 29.8208 12.2992 8.54785
6519 2 10.3579 8.14254 7.2303
3065 2 17.5627 4.74172 8.63884
5880 2 27.5276 4.00031 8.02132
7665 2 13.1449 11.609 6.47352
2352 2 30.3389 7.5981 9.34295
1602 2 12.1618 9.24326 6.48774
3726 2 21.572 8.15843 5.98698
3592 2 9.19408 11.0469 3.72266
7992 1 27.0439 7.43308 3.56419
3402 2 23.0585 8.74204 7.12516
2756 2 4.43585 10.8026 7.84972
2202 2 20.5545 5.14893 11.0361
4333 2 12.6143 3.81868 4.84082
1067 2 15.4416 12.3976 4.4583
2234 2 3.38247 5.09519 3.27359
7351 2 27.7877 8.33443 7.35132
7809 1 17.7563 12.4899 8.03906
8990 1 23.5043 6.27389 9.80892
647 2 17.5431 7.13532 4.83082
3476 2 10.0318 9.80447 9.14275
8510 1 11.9568 9.83255 9.88838
4235 2 4.94179 6.27509 3.42404
8739 1 11.0658 7.94994 11.3043
6976 2 10.0637 10.6912 6.93899
8346 1 20.5054 7.00797 9.50144
9087 1 4.04452 8.73322 9.33287
2138 2 18.949 11.4031 10.639
5502 2 17.8484 9.5164 6.17382
8145 1 23.9328 5.39604 11.0475
5436 2 28.8406 8.33196 9.41989
7372 2 17.1728 8.31934 9.06431
6054 2 28.1645 9.69934 10.1158
8803 1 25.2803 5.99964 3.39592
4461 2 28.7726 10.8018 7.25627
7773 1 31.1729 6.97966 10.7199
6647 2 30.5987 7.00333 5.69487
8477 1 26.7012 4.0691 3.58161
6274 2 28.4916 10.3979 11.7704
80 2 16.2054 8.90421 11.993
4237 2 7.257 11.4325 7.3254
7764 1 15.952 7.61206 10.7445
1236 2 7.24761 3.43328 5.40602
6730 2 13.8562 3.17502 11.6998
1789 2 30.0652 6.51588 6.92894
6631 2 11.0323 4.04433 6.40293
848 2 16.7304 4.00405 3.82446
3233 2 9.33642 10.7341 9.71506
1136 2 18.5642 7.45968 7.00753
8330 1 16.8207 10.2459 7.4898
4962 2 5.03279 10.4585 6.13852
463 2 26.5985 5.00032 11.3969
1761 2 26.446 11.9778 4.55613
782 2 30.2828 4.47312 9.04417
2903 2 13.4622 10.4274 6.30173
2729 2 10.5684 9.85836 5.83424
2471 2 7.12776 4.59892 10.8146
5514 2 9.85603 8.00653 8.26977
8489 1 10.9158 9.38249 11.9872
7495 2 19.2763 6.18619 6.89246
3563 2 11.1079 11.3912 5.1952
358 2 12.8547 11.4668 4.74745
4501 2 25.7558 9.4457 10.4531
5947 2 4.66306 6.25978 11.705
4757 2 19.1376 9.97102 4.7454
758 2 7.42743 10.812 11.4509
6926 2 12.8095 9.16224 9.1698
2355 2 6.14158 4.38933 4.28626
7418 2 7.86197 3.21181 12.2617
3190 2 8.80108 7.9195 7.15642
2551 2 5.15297 3.64296 5.53842
261 2 18.4323 11.7774 8.52754
3225 2 21.2958 7.90963 5.24314
35 2 21.2139 11.5638 8.80205
269 2 22.4436 10.4279 11.8931
7498 2 4.99336 8.17326 6.46097
4750 2 26.5736 5.63376 10.2468
8090 1 27.7328 12.0083 8.87114
5945 2 15.5682 8.09282 9.27643
1477 2 10.2138 10.6519 4.65333
5187 2 22.6205 4.38174 9.32413
1468 2 29.4024 11.3983 10.113
2233 2 10.9519 10.6652 10.668
5949 2 13.3485 7.81815 7.35678
7075 2 3.83095 7.27372 12.4307
3477 2 4.64895 11.4085 11.4098
6507 2 7.53576 7.90525 11.6476
5886 2 30.9068 12.368 10.3273
3808 2 3.57469 5.14368 4.97114
9216 1 22.9281 4.48093 12.2653
7491 2 6.19944 11.8323 5.91182
6914 2 4.29303 10.965 5.78776
6265 2 27.6112 8.68656 4.72868
4242 2 25.6332 3.62594 6.89761
1335 2 26.5647 7.34574 8.41798
6180 2 10.156 11.5975 11.8796
7420 2 5.89033 3.73774 7.88927
790 2 9.57009 9.32851 6.24141
1188 2 25.5837 10.6847 9.59351
2431 2 3.28978 8.31903 5.72341
2854 2 3.3016 3.32001 12.2174
6950 2 10.9492 10.8915 7.2838
4706 2 16.0725 12.0123 7.53982
721 2 24.922 9.48316 5.79711
4945 2 20.7085 10.6537 10.7667
664 2 15.6671 11.7594 8.13234
5629 2 26.0848 11.1096 7.65644
6477 2 3.24198 5.36761 7.98241
1981 2 25.3724 10.8104 11.1173
1983 2 21.9324 7.66174 7.88716
9045 1 22.3188 9.03288 11.6665
9218 1 20.257 11.7237 7.52725
6427 2 19.4767 12.3792 9.38187
9336 1 22.7174 10.4587 5.66756
3296 2 10.8248 12.0846 8.74591
6204 2 15.1324 4.13656 10.5196
9072 1 13.6401 10.7938 10.2936
1550 2 14.0894 7.81017 11.5811
4092 2 24.6958 7.84391 11.2702
465 2 31.2855 5.0206 8.43571
7572 2 19.4729 8.45279 4.25987
4551 2 10.788 3.19628 8.02611
4500 2 7.63137 5.7658 7.13477
3837 2 13.3785 7.43225 8.21512
5826 2 14.4302 11.9625 5.55372
7081 2 6.16991 9.31329 10.4912
8251 1 14.1336 6.34296 4.97565
6778 2 23.6921 4.46796 4.5658
5645 2 15.2421 4.94169 11.5393
4689 2 8.18471 11.0325 9.07962
972 2 19.6598 9.55893 12.0134
6349 2 29.3617 9.67195 11.8428
1202 2 7.18703 7.35956 9.32388
4357 2 4.53164 3.30567 3.3721
800 2 26.3204 9.5518 8.32478
1391 2 5.02755 5.53173 6.29161
6366 2 3.95169 7.68042 3.72688
894 2 9.5508 6.77564 11.2152
1247 2 4.36601 3.94185 7.37342
7315 2 27.6874 8.80259 8.49774
37 2 17.2015 10.7719 9.14441
1243 2 30.2731 10.6959 10.0425
7641 2 19.6982 12.0543 12.2917
6218 2 24.0014 10.9558 12.4798
8509 1 22.5645 7.23305 10.4244
9402 1 30.22 10.9228 8.05056
775 2 15.9798 8.47381 7.17742
9482 1 30.0707 3.77017 6.79784
2831 2 5.41257 6.97384 6.7269
245 2 14.2927 11.8777 6.43366
6414 2 21.6222 6.84965 5.0188
4587 2 13.7792 3.86263 4.29998
3179 2 5.99188 11.2711 5.63327
8419 1 16.6138 6.60284 10.1433
8383 1 26.353 4.99763 5.22154
1259 2 17.6535 11.5844 12.3262
5518 2 13.3398 12.3276 11.4106
7776 1 19.9471 9.17952 5.27448
1163 2 18.3753 10.7312 10.8106
3222 2 15.0314 8.24996 12.1069
2697 2 22.6702 11.5004 10.8804
5579 2 23.35 12.4647 7.29905
2918 2 12.0351 12.0149 9.61116
3444 2 6.37429 4.00044 9.36159
6908 2 14.808 7.10003 8.17153
4329 2 8.15902 10.4265 8.82538
8237 1 19.2895 8.54842 7.69129
6564 2 9.18676 6.94195 7.15967
8415 1 5.83345 10.902 7.09483
4889 2 30.9066 8.92544 10.9778
6431 2 14.7489 8.84354 12.1419
729 2 6.91549 7.3552 7.60267
1559 2 4.53043 12.2862 6.88675
2032 2 7.98136 6.27698 7.86958
3992 2 17.7112 11.134 10.3321
9514 1 13.0375 4.19151 11.2172
6591 2 3.70217 8.78129 7.93519
7406 2 21.9752 11.8601 5.35003
7775 1 25.2175 12.2574 8.10526
2273 2 9.69411 12.3865 4.54978
6037 2 21.8975 7.61301 7.0326
8776 1 7.30178 10.1142 3.71463
5024 2 18.3516 8.80254 5.71648
1677 2 29.8636 6.35498 8.6695
4085 2 15.5699 6.84555 4.84518
1072 2 29.087 12.1931 8.87021
4670 2 31.4815 7.55516 12.329
2835 2 3.50907 10.6166 7.98379
1402 2 26.4717 10.278 4.26686
374 2 26.2988 7.07774 7.36265
2696 2 23.3695 5.24748 8.57747
3625 2 6.26283 7.71383 10.2071
17 2 3.07519 9.58825 9.31016
1077 2 7.01324 11.5478 10.6728
343 2 28.4141 9.55794 5.29195
164 2 23.6424 11.7909 5.80463
7866 1 13.307 6.9017 9.61309
5072 2 31.4251 8.15955 6.99608
1336 2 26.9394 11.2202 7.44068
1224 2 30.922 5.93124 7.1563
7392 2 26.7256 10.1208 3.87919
9581 1 4.63003 11.9373 4.9748
7497 2 23.6708 9.32937 4.3457
4573 2 24.3273 10.2747 5.30897
7443 2 3.79086 9.79511 5.97754
5720 2 29.4743 5.7438 8.57431
3186 2 27.0027 5.67279 8.81717
2266 2 22.3167 9.02061 4.51433
4781 2 25.0287 10.1265 7.68528
3078 2 20.0195 5.81557 6.46876
2148 2 14.941 7.73763 9.27362
6228 2 10.3189 5.29552 8.70115
478 2 31.0993 11.7636 11.6758
7508 2 24.3656 11.0101 11.7541
7762 1 16.3808 7.4609 12.0908
2113 2 21.8219 3.74099 5.30398
7447 2 16.4378 10.4194 9.11452
1926 2 20.8059 7.11607 5.89526
4097 2 26.2655 4.44299 11.2329
5023 2 29.0283 7.2427 6.38492
8043 1 17.2432 5.99122 3.23915
6100 2 6.03274 5.56659 9.56263
2022 2 15.4458 4.19044 11.9731
8925 1 22.0336 8.69287 9.90225
822 2 19.9159 5.60988 11.7597
1409 2 10.2298 4.55129 8.53802
1153 2 19.129 3.69867 9.63834
7092 2 11.1821 11.4104 10.8201
3881 2 30.999 11.4335 7.1053
7396 2 13.5591 10.8058 7.92142
1648 2 30.9537 8.67789 10.248
528 2 31.1662 5.90023 9.27968
3961 2 4.73987 7.52215 4.01423
7923 1 6.18371 9.193 8.94671
8357 1 5.95824 8.21387 3.1776
6960 2 28.648 7.72563 9.89346
1033 2 26.448 10.3666 5.74752
92 2 8.15613 11.0388 3.65195
4229 2 13.6056 7.42217 11.217
1256 2 5.63433 6.7209 8.9265
8583 1 3.58357 7.97203 11.002
7033 2 11.96 10.7186 5.24933
3642 2 3.13753 3.22383 7.24271
7324 2 9.6924 3.20767 12.0822
7148 2 9.15147 8.69777 3.35688
2502 2 29.2057 4.07266 12.1064
7909 1 21.9725 6.06964 9.02716
7320 2 22.8506 12.1433 8.19411
1822 2 3.28278 11.6223 3.32527
1149 2 20.8371 11.4981 10.7988
3473 2 12.933 10.0263 6.6909
3703 2 25.1899 3.9971 10.7062
4704 2 8.67785 4.18491 4.34025
134 2 14.9206 10.0318 11.3761
5274 2 13.9754 9.19974 7.10535
2916 2 6.13088 10.4792 8.00919
1226 2 28.408 4.82223 10.7715
3413 2 13.4447 9.29369 5.38844
2421 2 5.68334 3.82014 3.949
5236 2 24.5677 3.73589 8.22669
127 2 24.9998 10.9465 5.14977
1194 2 21.3839 11.1202 6.75624
5663 2 9.66995 11.4191 7.36988
3089 2 12.3953 7.11707 12.1688
9144 1 28.1594 7.00553 12.2251
6171 2 8.46602 8.40287 9.67917
480 2 15.9523 11.2866 11.2328
3532 2 28.2502 11.229 10.6509
9259 1 18.3987 10.3215 7.51838
734 2 20.2039 9.48343 11.1327
8755 1 21.8212 9.81858 8.03784
601 2 11.649 9.47351 4.81714
133 2 16.5922 11.4517 11.7631
3185 2 30.9388 8.01456 9.56897
1031 2 29.2691 7.80234 5.10414
6256 2 24.8832 5.55256 9.92606
6546 2 26.0522 9.81427 5.27865
5643 2 8.38764 5.74995 12.191
3394 2 22.9532 11.9605 5.88732
2635 2 10.2487 10.3315 8.44408
4721 2 22.5923 5.96363 4.56876
532 2 3.04461 9.44977 6.35405
9227 1 29.5653 10.5767 4.5694
992 2 5.80226 8.61303 11.9719
6735 2 17.4492 6.54587 8.06411
4028 2 29.908 11.5831 10.7463
1577 2 7.17517 6.02542 11.5823
4368 2 17.8749 6.68921 12.0126
9321 1 28.7172 6.94321 10.9959
2999 2 20.9496 4.96667 12.3422
7835 1 16.4328 10.8185 6.39507
2395 2 7.0232 9.42059 11.8253
3218 2 25.6564 9.3572 9.72699
7341 2 11.6351 10.426 7.14714
1623 2 21.878 11.9102 12.134
5606 2 12.829 6.83836 11.7343
4290 2 6.19798 6.90265 7.97573
7681 2 20.952 9.40945 11.612
6116 2 7.03678 11.9186 8.60186
9604 1 21.8634 7.70375 12.0145
1017 2 25.62 10.5472 8.66738
8917 1 25.5953 11.8881 9.48629
4980 2 29.1995 9.41788 10.4374
2660 2 20.2754 10.3702 6.4515
8171 1 23.5931 8.41568 9.95956
2299 2 9.75353 11.4856 6.3201
1464 2 17.2449 9.1169 6.64834
2738 2 11.045 6.74173 9.22856
5807 2 20.8047 8.09997 10.6376
8242 1 30.7601 4.8812 11.9962
3484 2 5.27098 8.29557 7.88355
2815 2 15.7805 9.66666 8.3045
852 2 25.7996 5.86069 10.5201
4592 2 9.48128 6.26258 8.42341
8319 1 8.16363 10.7014 5.49082
7388 2 29.4063 12.4274 5.46193
3553 2 27.2737 8.09298 8.44507
8221 1 24.3027 7.44736 9.28826
8791 1 20.0426 11.8076 5.98884
5804 2 29.2975 7.61803 8.44237
3744 2 23.2635 4.94836 3.07341
9562 1 28.6645 11.872 3.16419
677 2 15.563 12.4398 11.5435
2267 2 26.1612 8.08079 11.3714
9214 1 29.3192 7.77293 11.7805
5896 2 3.46985 5.18044 9.49583
2721 2 9.90977 10.5368 11.5429
323 2 8.65966 10.584 10.7425
6257 2 26.7492 12.1871 10.2661
218 2 5.69999 10.0321 5.86566
1804 2 11.0162 6.98007 10.1929
98 2 25.2459 6.2298 11.4185
9580 1 20.9363 9.39161 9.33601
4481 2 30.6319 10.1484 5.83529
4899 2 4.66619 6.12602 4.7717
7630 2 17.585 5.82487 10.689
709 2 29.3692 12.1663 7.15471
8353 1 4.50112 9.23698 4.63371
5345 2 30.295 10.5055 9.2159
9016 1 15.8027 5.2178 9.07555
954 2 16.3973 9.2885 9.74503
8769 1 17.9455 9.24578 9.89439
8144 1 27.141 10.9759 12.2737
5207 2 8.96145 6.59648 11.8863
9371 1 31.1955 10.1168 11.2474
5868 2 21.5479 11.0088 9.1452
2909 2 17.6825 7.50323 5.70144
967 2 24.0478 11.4649 6.89111
1645 2 23.2164 10.6629 7.32026
3760 2 21.5451 9.95395 4.88956
2628 2 21.0478 5.23972 10.1696
2455 2 30.0115 9.38514 7.72317
3471 2 26.9174 12.3392 4.25187
2416 2 21.1071 12.0155 3.05302
8354 1 7.09373 11.1377 4.70673
8061 1 14.0142 6.19414 3.64046
3812 2 16.5239 3.59362 9.83131
8853 1 13.0022 10.9576 11.5824
6627 2 12.9452 7.60336 10.6578
2612 2 26.5147 6.94657 11.6824
5487 2 31.3705 11.4027 8.61356
3795 2 5.73465 6.24509 10.9401
347 2 10.3933 12.3094 9.65875
8898 1 25.2433 8.84911 8.8509
8734 1 3.52581 10.7263 9.87259
569 2 5.85393 4.82367 10.5825
3058 2 19.4661 11.9812 10.8343
3975 2 11.1958 6.20997 6.40599
8811 1 18.3092 9.70482 8.66567
7292 2 23.4722 11.4945 11.0549
159 2 13.6016 12.2201 10.697
8799 1 14.1909 3.60523 9.62566
7528 2 5.20155 10.9334 10.1631
4983 2 21.5589 10.3673 10.4554
3659 2 21.4744 9.35327 6.2685
1702 2 17.1313 5.30812 9.78397
6459 2 27.7903 5.66223 7.02606
6777 2 11.3908 5.03408 10.7909
1769 2 27.5011 9.82882 6.53858
811 2 25.5868 10.1878 11.2362
1621 2 5.99035 11.0622 10.4961
9308 1 16.1362 6.82467 8.34901
1863 2 3.445 11.7976 10.5494
7280 2 24.7799 7.10552 7.10722
7034 2 7.55403 6.0339 9.3535
8366 1 20.9621 6.77193 8.18632
2298 2 16.2859 5.4114 3.78196
4390 2 3.54142 6.39338 11.7661
941 2 19.7209 4.20837 8.67725
7439 2 22.93 11.2954 9.19764
4165 2 14.4466 6.96105 10.9075
553 2 7.95768 9.84533 7.32212
5661 2 9.28616 12.2403 9.07743